 Output coordinates in angstroms (scale by  1.889725989 to convert to a.u.)

  No.       Tag          Charge          X              Y              Z
 ---- ---------------- ---------- -------------- -------------- --------------
    1 H                    1.0000    -2.14700084     2.83214631    -1.50479802
    2 N                    7.0000    -1.33075480     2.69705931    -0.79380230
    3 C                    6.0000    -1.21422567     3.44415102     0.34412429
    4 N                    7.0000    -0.06671794     3.20498345     0.97851761
    5 C                    6.0000     0.55410399     2.18594728     0.24618271
    6 C                    6.0000     1.79166719     1.53498723     0.39541526
    7 O                    8.0000     2.62259060     1.64532463     1.32190215
    8 N                    7.0000     2.06198154     0.59376963    -0.61216082
    9 C                    6.0000     1.20986191     0.38323365    -1.64234903
   10 N                    7.0000     1.57579126    -0.42682177    -2.58760133
   11 N                    7.0000     0.03635396     0.97094412    -1.85336682
   12 C                    6.0000    -0.21367448     1.89839270    -0.87543691
   13 H                    1.0000    -2.96343273    -1.97547579    -1.67931655
   14 N                    7.0000    -2.59422536    -1.45410090    -0.81840010
   15 C                    6.0000    -3.09683421    -0.42260178    -0.11856662
   16 N                    7.0000    -2.35076785    -0.07418140     0.93105342
   17 C                    6.0000    -1.22955910    -0.89316972     0.82882794
   18 C                    6.0000    -0.08424878    -0.99479193     1.64110449
   19 O                    8.0000     0.21849949    -0.26784440     2.61634537
   20 N                    7.0000     0.84477976    -1.95889489     1.26699024
   21 C                    6.0000     0.59053416    -2.76591493     0.21654375
   22 N                    7.0000     1.55065297    -3.67987828    -0.00772587
   23 N                    7.0000    -0.50146948    -2.75887116    -0.56309363
   24 C                    6.0000    -1.34363903    -1.73629383    -0.23529635
   25 H                    1.0000     1.04348906    -0.63415799    -3.40913773
   26 H                    1.0000     2.43353619    -0.94122609    -2.60767210
   27 H                    1.0000    -1.96826998     4.15075738     0.69129377
   28 H                    1.0000     2.90887393     0.06335756    -0.56732416
   29 H                    1.0000     2.38931713    -3.77970842     0.52892426
   30 H                    1.0000     1.53770752    -4.36481296    -0.73617484
   31 H                    1.0000     1.69992780    -2.05344486     1.77657745
   32 H                    1.0000    -4.02615313     0.08102803    -0.38452220

         Total SCF energy =  -1079.114798278395

       Multipole analysis of the density wrt the origin
       ------------------------------------------------

     L   x y z        total         open         nuclear
     -   - - -        -----         ----         -------
     0   0 0 0      0.000000      0.000000    156.000000

     1   1 0 0     -0.238640      0.000000      0.000000
     1   0 1 0     -3.381195      0.000000      0.000000
     1   0 0 1     -4.323027      0.000000      0.000000

     2   2 0 0    -75.788348      0.000000   1438.652767
     2   1 1 0    -22.811072      0.000000    -54.397267
     2   1 0 1     -0.675283      0.000000     -0.000601
     2   0 2 0    -83.929611      0.000000   2233.492866
     2   0 1 1     -7.186266      0.000000      7.472150

 Total MP2 energy:          -1083.221729200962955
 Total times  cpu:     8946.8s     wall:     9263.7s
